
     Program BANDS v.6.3MaX starts on 20Feb2023 at 14:37:24 

     This program is part of the open-source Quantum ESPRESSO suite
     for quantum simulation of materials; please cite
         "P. Giannozzi et al., J. Phys.:Condens. Matter 21 395502 (2009);
         "P. Giannozzi et al., J. Phys.:Condens. Matter 29 465901 (2017);
          URL http://www.quantum-espresso.org", 
     in publications or presentations arising from this work. More details at
     http://www.quantum-espresso.org/quote

     Parallel version (MPI), running on     4 processors

     MPI processes distributed on     1 nodes
     R & G space division:  proc/nbgrp/npool/nimage =       4

     Reading data from directory:
     ./Graphene.save/
     Message from routine volume:
     axis vectors are left-handed
     Message from routine volume:
     axis vectors are left-handed

     IMPORTANT: XC functional enforced from input :
     Exchange-correlation      = PBE ( 1  4  3  4 0 0)
     Any further DFT definition will be discarded
     Please, verify this is what you really want


     Parallelization info
     --------------------
     sticks:   dense  smooth     PW     G-vecs:    dense   smooth      PW
     Min          60      60     21                 3100     3100     581
     Max          61      61     22                 3113     3113     586
     Sum         241     241     85                12417    12417    2337


     Check: negative/imaginary core charge=   -0.000019    0.000000

     negative rho (up, down):  1.259E-03 0.000E+00
     high-symmetry point:  0.2880-0.4988 0.0000   x coordinate   0.0000
     high-symmetry point:  0.0000 0.0000 0.0000   x coordinate   0.5759
     high-symmetry point:  0.5702-0.3292 0.0000   x coordinate   1.2344
     high-symmetry point:  0.2880-0.4988 0.0000   x coordinate   1.5637

     Plottable bands (eV) written to file Graphene-bands.dat.gnu
     Bands written to file Graphene-bands.dat

 **************************************************************************

                    xk=(   0.28800,  -0.49877,   0.00000  )

     point group C_s (m)    
     there are  2 classes
     the character table:

       E     s    
A'     1.00  1.00
A''    1.00 -1.00

     the symmetry operations in each class and the name of the first element:

     E        1
                                                                 
     s        2
                                                                 

     Band symmetry, C_s (m)     point group:

     e(  1 -  1) =    -14.83755  eV     1   --> A'             
     e(  2 -  2) =    -13.80982  eV     1   --> A'             
     e(  3 -  3) =     -7.00290  eV     1   --> A'             
     e(  4 -  4) =     -2.91238  eV     1   --> A''            
     e(  5 -  5) =      1.13426  eV     1   --> A''            
     e(  6 -  6) =      6.85960  eV     1   --> A'             
     e(  7 -  7) =     10.34270  eV     1   --> A'             
     e(  8 -  8) =     10.45924  eV     1   --> A'             
     e(  9 -  9) =     11.61139  eV     1   --> A''            
     e( 10 - 10) =     11.97171  eV     1   --> A''            
     e( 11 - 11) =     12.68210  eV     1   --> A'             
     e( 12 - 12) =     12.77190  eV     1   --> A'             

 **************************************************************************

 **************************************************************************

                    xk=(   0.27360,  -0.47383,   0.00000  )

     Band symmetry, C_s (m)     point group:

     e(  1 -  1) =    -15.06575  eV     1   --> A'             
     e(  2 -  2) =    -13.55960  eV     1   --> A'             
     e(  3 -  3) =     -6.98811  eV     1   --> A'             
     e(  4 -  4) =     -3.00765  eV     1   --> A''            
     e(  5 -  5) =      1.25252  eV     1   --> A''            
     e(  6 -  6) =      6.86698  eV     1   --> A'             
     e(  7 -  7) =      9.63398  eV     1   --> A'             
     e(  8 -  8) =     11.04669  eV     1   --> A''            
     e(  9 -  9) =     11.19682  eV     1   --> A'             
     e( 10 - 10) =     11.97928  eV     1   --> A'             
     e( 11 - 11) =     12.54863  eV     1   --> A''            
     e( 12 - 12) =     13.50328  eV     1   --> A'             

 **************************************************************************

 **************************************************************************

                    xk=(   0.25920,  -0.44889,   0.00000  )

     Band symmetry, C_s (m)     point group:

     e(  1 -  1) =    -15.49374  eV     1   --> A'             
     e(  2 -  2) =    -13.06592  eV     1   --> A'             
     e(  3 -  3) =     -6.94379  eV     1   --> A'             
     e(  4 -  4) =     -3.26415  eV     1   --> A''            
     e(  5 -  5) =      1.57797  eV     1   --> A''            
     e(  6 -  6) =      6.88881  eV     1   --> A'             
     e(  7 -  7) =      8.90436  eV     1   --> A'             
     e(  8 -  8) =     10.35778  eV     1   --> A''            
     e(  9 -  9) =     11.25623  eV     1   --> A'             
     e( 10 - 10) =     12.02236  eV     1   --> A'             
     e( 11 - 11) =     13.25561  eV     1   --> A''            
     e( 12 - 12) =     14.29687  eV     1   --> A'             

 **************************************************************************

 **************************************************************************

                    xk=(   0.24480,  -0.42395,   0.00000  )

     Band symmetry, C_s (m)     point group:

     e(  1 -  1) =    -15.95026  eV     1   --> A'             
     e(  2 -  2) =    -12.50038  eV     1   --> A'             
     e(  3 -  3) =     -6.87070  eV     1   --> A'             
     e(  4 -  4) =     -3.62313  eV     1   --> A''            
     e(  5 -  5) =      2.05050  eV     1   --> A''            
     e(  6 -  6) =      6.92373  eV     1   --> A'             
     e(  7 -  7) =      8.21128  eV     1   --> A'             
     e(  8 -  8) =      9.69063  eV     1   --> A''            
     e(  9 -  9) =     10.57576  eV     1   --> A'             
     e( 10 - 10) =     12.85218  eV     1   --> A'             
     e( 11 - 11) =     13.81370  eV     1   --> A''            
     e( 12 - 12) =     14.86466  eV     1   --> A''            

 **************************************************************************

 **************************************************************************

                    xk=(   0.23040,  -0.39901,   0.00000  )

     Band symmetry, C_s (m)     point group:

     e(  1 -  1) =    -16.39889  eV     1   --> A'             
     e(  2 -  2) =    -11.90027  eV     1   --> A'             
     e(  3 -  3) =     -6.76905  eV     1   --> A'             
     e(  4 -  4) =     -4.03435  eV     1   --> A''            
     e(  5 -  5) =      2.61814  eV     1   --> A''            
     e(  6 -  6) =      6.96597  eV     1   --> A'             
     e(  7 -  7) =      7.56166  eV     1   --> A'             
     e(  8 -  8) =      9.05405  eV     1   --> A''            
     e(  9 -  9) =      9.92963  eV     1   --> A'             
     e( 10 - 10) =     13.67129  eV     1   --> A'             
     e( 11 - 11) =     13.79687  eV     1   --> A''            
     e( 12 - 12) =     15.18338  eV     1   --> A''            

 **************************************************************************

 **************************************************************************

                    xk=(   0.21600,  -0.37408,   0.00000  )

     Band symmetry, C_s (m)     point group:

     e(  1 -  1) =    -16.82929  eV     1   --> A'             
     e(  2 -  2) =    -11.27733  eV     1   --> A'             
     e(  3 -  3) =     -6.63970  eV     1   --> A'             
     e(  4 -  4) =     -4.46538  eV     1   --> A''            
     e(  5 -  5) =      3.24572  eV     1   --> A''            
     e(  6 -  6) =      6.86917  eV     1   --> A'             
     e(  7 -  7) =      7.10146  eV     1   --> A'             
     e(  8 -  8) =      8.45149  eV     1   --> A''            
     e(  9 -  9) =      9.32098  eV     1   --> A'             
     e( 10 - 10) =     13.41674  eV     1   --> A''            
     e( 11 - 11) =     14.42139  eV     1   --> A'             
     e( 12 - 12) =     15.52360  eV     1   --> A'             

 **************************************************************************

 **************************************************************************

                    xk=(   0.20160,  -0.34914,   0.00000  )

     Band symmetry, C_s (m)     point group:

     e(  1 -  1) =    -17.23740  eV     1   --> A'             
     e(  2 -  2) =    -10.63780  eV     1   --> A'             
     e(  3 -  3) =     -6.48403  eV     1   --> A'             
     e(  4 -  4) =     -4.89693  eV     1   --> A''            
     e(  5 -  5) =      3.90997  eV     1   --> A''            
     e(  6 -  6) =      6.32963  eV     1   --> A'             
     e(  7 -  7) =      7.13255  eV     1   --> A'             
     e(  8 -  8) =      7.88530  eV     1   --> A''            
     e(  9 -  9) =      8.75179  eV     1   --> A'             
     e( 10 - 10) =     12.97280  eV     1   --> A''            
     e( 11 - 11) =     14.90577  eV     1   --> A'             
     e( 12 - 12) =     15.08611  eV     1   --> A'             

 **************************************************************************

 **************************************************************************

                    xk=(   0.18720,  -0.32420,   0.00000  )

     Band symmetry, C_s (m)     point group:

     e(  1 -  1) =    -17.62085  eV     1   --> A'             
     e(  2 -  2) =     -9.98590  eV     1   --> A'             
     e(  3 -  3) =     -6.30321  eV     1   --> A'             
     e(  4 -  4) =     -5.31691  eV     1   --> A''            
     e(  5 -  5) =      4.59429  eV     1   --> A''            
     e(  6 -  6) =      5.79210  eV     1   --> A'             
     e(  7 -  7) =      7.20599  eV     1   --> A'             
     e(  8 -  8) =      7.35801  eV     1   --> A''            
     e(  9 -  9) =      8.22577  eV     1   --> A'             
     e( 10 - 10) =     12.52631  eV     1   --> A''            
     e( 11 - 11) =     14.47488  eV     1   --> A'             
     e( 12 - 12) =     15.28233  eV     1   --> A'             

 **************************************************************************

 **************************************************************************

                    xk=(   0.17280,  -0.29926,   0.00000  )

     Band symmetry, C_s (m)     point group:

     e(  1 -  1) =    -17.97850  eV     1   --> A'             
     e(  2 -  2) =     -9.32636  eV     1   --> A'             
     e(  3 -  3) =     -6.09930  eV     1   --> A'             
     e(  4 -  4) =     -5.71819  eV     1   --> A''            
     e(  5 -  5) =      5.28111  eV     1   --> A''            
     e(  6 -  6) =      5.29068  eV     1   --> A'             
     e(  7 -  7) =      6.87531  eV     1   --> A''            
     e(  8 -  8) =      7.26863  eV     1   --> A'             
     e(  9 -  9) =      7.76016  eV     1   --> A'             
     e( 10 - 10) =     12.09532  eV     1   --> A''            
     e( 11 - 11) =     14.00950  eV     1   --> A'             
     e( 12 - 12) =     14.55247  eV     1   --> A'             

 **************************************************************************

 **************************************************************************

                    xk=(   0.15840,  -0.27432,   0.00000  )

     Band symmetry, C_s (m)     point group:

     e(  1 -  1) =    -18.30951  eV     1   --> A'             
     e(  2 -  2) =     -8.66345  eV     1   --> A'             
     e(  3 -  3) =     -6.09611  eV     1   --> A''            
     e(  4 -  4) =     -5.87420  eV     1   --> A'             
     e(  5 -  5) =      4.82801  eV     1   --> A'             
     e(  6 -  6) =      5.91576  eV     1   --> A''            
     e(  7 -  7) =      6.48252  eV     1   --> A''            
     e(  8 -  8) =      7.15742  eV     1   --> A'             
     e(  9 -  9) =      7.51306  eV     1   --> A'             
     e( 10 - 10) =     11.68802  eV     1   --> A''            
     e( 11 - 11) =     13.57571  eV     1   --> A'             
     e( 12 - 12) =     13.70094  eV     1   --> A'             

 **************************************************************************

 **************************************************************************

                    xk=(   0.14400,  -0.24938,   0.00000  )

     Band symmetry, C_s (m)     point group:

     e(  1 -  1) =    -18.61322  eV     1   --> A'             
     e(  2 -  2) =     -8.00276  eV     1   --> A'             
     e(  3 -  3) =     -6.44711  eV     1   --> A''            
     e(  4 -  4) =     -5.63160  eV     1   --> A'             
     e(  5 -  5) =      4.40487  eV     1   --> A'             
     e(  6 -  6) =      5.91728  eV     1   --> A''            
     e(  7 -  7) =      6.75131  eV     1   --> A''            
     e(  8 -  8) =      6.79673  eV     1   --> A'             
     e(  9 -  9) =      7.55565  eV     1   --> A'             
     e( 10 - 10) =     11.30914  eV     1   --> A''            
     e( 11 - 11) =     12.86306  eV     1   --> A'             
     e( 12 - 12) =     13.17672  eV     1   --> A'             

 **************************************************************************

 **************************************************************************

                    xk=(   0.12960,  -0.22445,   0.00000  )

     Band symmetry, C_s (m)     point group:

     e(  1 -  1) =    -18.88908  eV     1   --> A'             
     e(  2 -  2) =     -7.35048  eV     1   --> A'             
     e(  3 -  3) =     -6.76892  eV     1   --> A''            
     e(  4 -  4) =     -5.37495  eV     1   --> A'             
     e(  5 -  5) =      4.02158  eV     1   --> A'             
     e(  6 -  6) =      5.57006  eV     1   --> A''            
     e(  7 -  7) =      6.43103  eV     1   --> A'             
     e(  8 -  8) =      7.38821  eV     1   --> A''            
     e(  9 -  9) =      7.63909  eV     1   --> A'             
     e( 10 - 10) =     10.96164  eV     1   --> A''            
     e( 11 - 11) =     12.05126  eV     1   --> A'             
     e( 12 - 12) =     12.81370  eV     1   --> A'             

 **************************************************************************

 **************************************************************************

                    xk=(   0.11520,  -0.19951,   0.00000  )

     Band symmetry, C_s (m)     point group:

     e(  1 -  1) =    -19.13674  eV     1   --> A'             
     e(  2 -  2) =     -7.05987  eV     1   --> A''            
     e(  3 -  3) =     -6.71394  eV     1   --> A'             
     e(  4 -  4) =     -5.10906  eV     1   --> A'             
     e(  5 -  5) =      3.67835  eV     1   --> A'             
     e(  6 -  6) =      5.23903  eV     1   --> A''            
     e(  7 -  7) =      6.09742  eV     1   --> A'             
     e(  8 -  8) =      7.72079  eV     1   --> A'             
     e(  9 -  9) =      8.01879  eV     1   --> A''            
     e( 10 - 10) =     10.64751  eV     1   --> A''            
     e( 11 - 11) =     11.27673  eV     1   --> A'             
     e( 12 - 12) =     12.48733  eV     1   --> A'             

 **************************************************************************

 **************************************************************************

                    xk=(   0.10080,  -0.17457,   0.00000  )

     Band symmetry, C_s (m)     point group:

     e(  1 -  1) =    -19.35593  eV     1   --> A'             
     e(  2 -  2) =     -7.31886  eV     1   --> A''            
     e(  3 -  3) =     -6.10263  eV     1   --> A'             
     e(  4 -  4) =     -4.83981  eV     1   --> A'             
     e(  5 -  5) =      3.37531  eV     1   --> A'             
     e(  6 -  6) =      4.94284  eV     1   --> A''            
     e(  7 -  7) =      5.80109  eV     1   --> A'             
     e(  8 -  8) =      7.78961  eV     1   --> A'             
     e(  9 -  9) =      8.61477  eV     1   --> A''            
     e( 10 - 10) =     10.36818  eV     1   --> A''            
     e( 11 - 11) =     10.55004  eV     1   --> A'             
     e( 12 - 12) =     12.19794  eV     1   --> A'             

 **************************************************************************

 **************************************************************************

                    xk=(   0.08640,  -0.14963,   0.00000  )

     Band symmetry, C_s (m)     point group:

     e(  1 -  1) =    -19.54636  eV     1   --> A'             
     e(  2 -  2) =     -7.54483  eV     1   --> A''            
     e(  3 -  3) =     -5.52708  eV     1   --> A'             
     e(  4 -  4) =     -4.57426  eV     1   --> A'             
     e(  5 -  5) =      3.11257  eV     1   --> A'             
     e(  6 -  6) =      4.68465  eV     1   --> A''            
     e(  7 -  7) =      5.54351  eV     1   --> A'             
     e(  8 -  8) =      7.83882  eV     1   --> A'             
     e(  9 -  9) =      9.16286  eV     1   --> A''            
     e( 10 - 10) =      9.88226  eV     1   --> A'             
     e( 11 - 11) =     10.12494  eV     1   --> A''            
     e( 12 - 12) =     11.94577  eV     1   --> A'             

 **************************************************************************

 **************************************************************************

                    xk=(   0.07200,  -0.12469,   0.00000  )

     Band symmetry, C_s (m)     point group:

     e(  1 -  1) =    -19.70779  eV     1   --> A'             
     e(  2 -  2) =     -7.73703  eV     1   --> A''            
     e(  3 -  3) =     -5.00002  eV     1   --> A'             
     e(  4 -  4) =     -4.32170  eV     1   --> A'             
     e(  5 -  5) =      2.89019  eV     1   --> A'             
     e(  6 -  6) =      4.46549  eV     1   --> A''            
     e(  7 -  7) =      5.32524  eV     1   --> A'             
     e(  8 -  8) =      7.86398  eV     1   --> A'             
     e(  9 -  9) =      9.28503  eV     1   --> A'             
     e( 10 - 10) =      9.64941  eV     1   --> A''            
     e( 11 - 11) =      9.92090  eV     1   --> A''            
     e( 12 - 12) =     11.73096  eV     1   --> A'             

 **************************************************************************

 **************************************************************************

                    xk=(   0.05760,  -0.09975,   0.00000  )

     Band symmetry, C_s (m)     point group:

     e(  1 -  1) =    -19.84011  eV     1   --> A'             
     e(  2 -  2) =     -7.89497  eV     1   --> A''            
     e(  3 -  3) =     -4.53640  eV     1   --> A'             
     e(  4 -  4) =     -4.09211  eV     1   --> A'             
     e(  5 -  5) =      2.70821  eV     1   --> A'             
     e(  6 -  6) =      4.28583  eV     1   --> A''            
     e(  7 -  7) =      5.14656  eV     1   --> A'             
     e(  8 -  8) =      7.86459  eV     1   --> A'             
     e(  9 -  9) =      8.77004  eV     1   --> A'             
     e( 10 - 10) =      9.74249  eV     1   --> A''            
     e( 11 - 11) =     10.07784  eV     1   --> A''            
     e( 12 - 12) =     11.55381  eV     1   --> A'             

 **************************************************************************

 **************************************************************************

                    xk=(   0.04320,  -0.07482,   0.00000  )

     Band symmetry, C_s (m)     point group:

     e(  1 -  1) =    -19.94315  eV     1   --> A'             
     e(  2 -  2) =     -8.01818  eV     1   --> A''            
     e(  3 -  3) =     -4.15178  eV     1   --> A'             
     e(  4 -  4) =     -3.89649  eV     1   --> A'             
     e(  5 -  5) =      2.56666  eV     1   --> A'             
     e(  6 -  6) =      4.14591  eV     1   --> A''            
     e(  7 -  7) =      5.00757  eV     1   --> A'             
     e(  8 -  8) =      7.84590  eV     1   --> A'             
     e(  9 -  9) =      8.35100  eV     1   --> A'             
     e( 10 - 10) =      9.61184  eV     1   --> A''            
     e( 11 - 11) =     10.41610  eV     1   --> A''            
     e( 12 - 12) =     11.41490  eV     1   --> A'             

 **************************************************************************

 **************************************************************************

                    xk=(   0.02880,  -0.04988,   0.00000  )

     Band symmetry, C_s (m)     point group:

     e(  1 -  1) =    -20.01683  eV     1   --> A'             
     e(  2 -  2) =     -8.10642  eV     1   --> A''            
     e(  3 -  3) =     -3.86187  eV     1   --> A'             
     e(  4 -  4) =     -3.74571  eV     1   --> A'             
     e(  5 -  5) =      2.46556  eV     1   --> A'             
     e(  6 -  6) =      4.04587  eV     1   --> A''            
     e(  7 -  7) =      4.90832  eV     1   --> A'             
     e(  8 -  8) =      7.81827  eV     1   --> A'             
     e(  9 -  9) =      8.04057  eV     1   --> A'             
     e( 10 - 10) =      9.51724  eV     1   --> A''            
     e( 11 - 11) =     10.66710  eV     1   --> A''            
     e( 12 - 12) =     11.31499  eV     1   --> A'             

 **************************************************************************

 **************************************************************************

                    xk=(   0.01440,  -0.02494,   0.00000  )

     Band symmetry, C_s (m)     point group:

     e(  1 -  1) =    -20.06107  eV     1   --> A'             
     e(  2 -  2) =     -8.15945  eV     1   --> A''            
     e(  3 -  3) =     -3.68146  eV     1   --> A'             
     e(  4 -  4) =     -3.65070  eV     1   --> A'             
     e(  5 -  5) =      2.40491  eV     1   --> A'             
     e(  6 -  6) =      3.98582  eV     1   --> A''            
     e(  7 -  7) =      4.84880  eV     1   --> A'             
     e(  8 -  8) =      7.79427  eV     1   --> A'             
     e(  9 -  9) =      7.84906  eV     1   --> A'             
     e( 10 - 10) =      9.46030  eV     1   --> A''            
     e( 11 - 11) =     10.82114  eV     1   --> A''            
     e( 12 - 12) =     11.25476  eV     1   --> A'             

 **************************************************************************

 **************************************************************************

                    xk=(   0.00000,   0.00000,   0.00000  )

     point group C_2v (mm2) 
     there are  4 classes
     the character table:

       E     C2    s_v   s_v' 
A_1    1.00  1.00  1.00  1.00
A_2    1.00  1.00 -1.00 -1.00
B_1    1.00 -1.00  1.00 -1.00
B_2    1.00 -1.00 -1.00  1.00

     the symmetry operations in each class and the name of the first element:

     E        1
                                                                 
     C2       2
                                                                 
     s_v      4
                                                                 
     s_v'     3
                                                                 

     Band symmetry, C_2v (mm2)  point group:

     e(  1 -  1) =    -20.07583  eV     1   --> A_1  D_1  S_1  
     e(  2 -  2) =     -8.17713  eV     1   --> B_1  D_3  S_3  
     e(  3 -  3) =     -3.62085  eV     1   --> B_2  D_4  S_4  
     e(  4 -  4) =     -3.61726  eV     1   --> A_1  D_1  S_1  
     e(  5 -  5) =      2.38469  eV     1   --> A_1  D_1  S_1  
     e(  6 -  6) =      3.96580  eV     1   --> B_1  D_3  S_3  
     e(  7 -  7) =      4.82896  eV     1   --> A_1  D_1  S_1  
     e(  8 -  8) =      7.78402  eV     1   --> A_1  D_1  S_1  
     e(  9 -  9) =      7.78498  eV     1   --> B_2  D_4  S_4  
     e( 10 - 10) =      9.44130  eV     1   --> B_1  D_3  S_3  
     e( 11 - 11) =     10.87338  eV     1   --> B_1  D_3  S_3  
     e( 12 - 12) =     11.23465  eV     1   --> A_1  D_1  S_1  

 **************************************************************************

 **************************************************************************

                    xk=(   0.02851,  -0.01646,   0.00000  )

     point group C_s (m)    
     there are  2 classes
     the character table:

       E     s    
A'     1.00  1.00
A''    1.00 -1.00

     the symmetry operations in each class and the name of the first element:

     E        1
                                                                 
     s        2
                                                                 

     Band symmetry, C_s (m)     point group:

     e(  1 -  1) =    -20.05655  eV     1   --> A'             
     e(  2 -  2) =     -8.15403  eV     1   --> A''            
     e(  3 -  3) =     -3.69810  eV     1   --> A'             
     e(  4 -  4) =     -3.66270  eV     1   --> A'             
     e(  5 -  5) =      2.41111  eV     1   --> A'             
     e(  6 -  6) =      3.99196  eV     1   --> A''            
     e(  7 -  7) =      4.85489  eV     1   --> A'             
     e(  8 -  8) =      7.79721  eV     1   --> A'             
     e(  9 -  9) =      7.86851  eV     1   --> A'             
     e( 10 - 10) =      9.46612  eV     1   --> A''            
     e( 11 - 11) =     10.80518  eV     1   --> A''            
     e( 12 - 12) =     11.26093  eV     1   --> A'             

 **************************************************************************

 **************************************************************************

                    xk=(   0.05702,  -0.03292,   0.00000  )

     Band symmetry, C_s (m)     point group:

     e(  1 -  1) =    -19.99871  eV     1   --> A'             
     e(  2 -  2) =     -8.08471  eV     1   --> A''            
     e(  3 -  3) =     -3.92888  eV     1   --> A'             
     e(  4 -  4) =     -3.78931  eV     1   --> A'             
     e(  5 -  5) =      2.49039  eV     1   --> A'             
     e(  6 -  6) =      4.07045  eV     1   --> A''            
     e(  7 -  7) =      4.93270  eV     1   --> A'             
     e(  8 -  8) =      7.83637  eV     1   --> A'             
     e(  9 -  9) =      8.10709  eV     1   --> A'             
     e( 10 - 10) =      9.54054  eV     1   --> A''            
     e( 11 - 11) =     10.60491  eV     1   --> A''            
     e( 12 - 12) =     11.33961  eV     1   --> A'             

 **************************************************************************

 **************************************************************************

                    xk=(   0.08554,  -0.04938,   0.00000  )

     Band symmetry, C_s (m)     point group:

     e(  1 -  1) =    -19.90246  eV     1   --> A'             
     e(  2 -  2) =     -7.96950  eV     1   --> A''            
     e(  3 -  3) =     -4.28745  eV     1   --> A'             
     e(  4 -  4) =     -3.99540  eV     1   --> A'             
     e(  5 -  5) =      2.62254  eV     1   --> A'             
     e(  6 -  6) =      4.20115  eV     1   --> A''            
     e(  7 -  7) =      5.06247  eV     1   --> A'             
     e(  8 -  8) =      7.90488  eV     1   --> A'             
     e(  9 -  9) =      8.46489  eV     1   --> A'             
     e( 10 - 10) =      9.66416  eV     1   --> A''            
     e( 11 - 11) =     10.28125  eV     1   --> A''            
     e( 12 - 12) =     11.47015  eV     1   --> A'             

 **************************************************************************

 **************************************************************************

                    xk=(   0.11405,  -0.06584,   0.00000  )

     Band symmetry, C_s (m)     point group:

     e(  1 -  1) =    -19.76789  eV     1   --> A'             
     e(  2 -  2) =     -7.80873  eV     1   --> A''            
     e(  3 -  3) =     -4.74529  eV     1   --> A'             
     e(  4 -  4) =     -4.27448  eV     1   --> A'             
     e(  5 -  5) =      2.80756  eV     1   --> A'             
     e(  6 -  6) =      4.38394  eV     1   --> A''            
     e(  7 -  7) =      5.24428  eV     1   --> A'             
     e(  8 -  8) =      8.00594  eV     1   --> A'             
     e(  9 -  9) =      8.89245  eV     1   --> A'             
     e( 10 - 10) =      9.83639  eV     1   --> A''            
     e( 11 - 11) =      9.84775  eV     1   --> A''            
     e( 12 - 12) =     11.65182  eV     1   --> A'             

 **************************************************************************

 **************************************************************************

                    xk=(   0.14256,  -0.08230,   0.00000  )

     Band symmetry, C_s (m)     point group:

     e(  1 -  1) =    -19.59513  eV     1   --> A'             
     e(  2 -  2) =     -7.60279  eV     1   --> A''            
     e(  3 -  3) =     -5.27339  eV     1   --> A'             
     e(  4 -  4) =     -4.61756  eV     1   --> A'             
     e(  5 -  5) =      3.04545  eV     1   --> A'             
     e(  6 -  6) =      4.61861  eV     1   --> A''            
     e(  7 -  7) =      5.47821  eV     1   --> A'             
     e(  8 -  8) =      8.14430  eV     1   --> A'             
     e(  9 -  9) =      9.32141  eV     1   --> A''            
     e( 10 - 10) =      9.33696  eV     1   --> A'             
     e( 11 - 11) =     10.05629  eV     1   --> A''            
     e( 12 - 12) =     11.88390  eV     1   --> A'             

 **************************************************************************

 **************************************************************************

                    xk=(   0.17107,  -0.09876,   0.00000  )

     Band symmetry, C_s (m)     point group:

     e(  1 -  1) =    -19.38449  eV     1   --> A'             
     e(  2 -  2) =     -7.35247  eV     1   --> A''            
     e(  3 -  3) =     -5.84756  eV     1   --> A'             
     e(  4 -  4) =     -5.01530  eV     1   --> A'             
     e(  5 -  5) =      3.33617  eV     1   --> A'             
     e(  6 -  6) =      4.90483  eV     1   --> A''            
     e(  7 -  7) =      5.76428  eV     1   --> A'             
     e(  8 -  8) =      8.32251  eV     1   --> A'             
     e(  9 -  9) =      8.72014  eV     1   --> A''            
     e( 10 - 10) =      9.75496  eV     1   --> A'             
     e( 11 - 11) =     10.32227  eV     1   --> A''            
     e( 12 - 12) =     12.16568  eV     1   --> A'             

 **************************************************************************

 **************************************************************************

                    xk=(   0.19959,  -0.11522,   0.00000  )

     Band symmetry, C_s (m)     point group:

     e(  1 -  1) =    -19.13623  eV     1   --> A'             
     e(  2 -  2) =     -7.05871  eV     1   --> A''            
     e(  3 -  3) =     -6.44790  eV     1   --> A'             
     e(  4 -  4) =     -5.45691  eV     1   --> A'             
     e(  5 -  5) =      3.67966  eV     1   --> A'             
     e(  6 -  6) =      5.24212  eV     1   --> A''            
     e(  7 -  7) =      6.10248  eV     1   --> A'             
     e(  8 -  8) =      8.06216  eV     1   --> A''            
     e(  9 -  9) =      8.54297  eV     1   --> A'             
     e( 10 - 10) =     10.12391  eV     1   --> A'             
     e( 11 - 11) =     10.63183  eV     1   --> A''            
     e( 12 - 12) =     12.49651  eV     1   --> A'             

 **************************************************************************

 **************************************************************************

                    xk=(   0.22810,  -0.13167,   0.00000  )

     Band symmetry, C_s (m)     point group:

     e(  1 -  1) =    -18.85077  eV     1   --> A'             
     e(  2 -  2) =     -7.06018  eV     1   --> A'             
     e(  3 -  3) =     -6.72259  eV     1   --> A''            
     e(  4 -  4) =     -5.93204  eV     1   --> A'             
     e(  5 -  5) =      4.07581  eV     1   --> A'             
     e(  6 -  6) =      5.62983  eV     1   --> A''            
     e(  7 -  7) =      6.49266  eV     1   --> A'             
     e(  8 -  8) =      7.36430  eV     1   --> A''            
     e(  9 -  9) =      8.80631  eV     1   --> A'             
     e( 10 - 10) =     10.44253  eV     1   --> A'             
     e( 11 - 11) =     10.98088  eV     1   --> A''            
     e( 12 - 12) =     12.87573  eV     1   --> A'             

 **************************************************************************

 **************************************************************************

                    xk=(   0.25661,  -0.14813,   0.00000  )

     Band symmetry, C_s (m)     point group:

     e(  1 -  1) =    -18.52856  eV     1   --> A'             
     e(  2 -  2) =     -7.67336  eV     1   --> A'             
     e(  3 -  3) =     -6.43090  eV     1   --> A'             
     e(  4 -  4) =     -6.34554  eV     1   --> A''            
     e(  5 -  5) =      4.52447  eV     1   --> A'             
     e(  6 -  6) =      6.06696  eV     1   --> A''            
     e(  7 -  7) =      6.64142  eV     1   --> A''            
     e(  8 -  8) =      6.93461  eV     1   --> A'             
     e(  9 -  9) =      9.11230  eV     1   --> A'             
     e( 10 - 10) =     10.72134  eV     1   --> A'             
     e( 11 - 11) =     11.36227  eV     1   --> A''            
     e( 12 - 12) =     13.30252  eV     1   --> A'             

 **************************************************************************

 **************************************************************************

                    xk=(   0.28512,  -0.16459,   0.00000  )

     Band symmetry, C_s (m)     point group:

     e(  1 -  1) =    -18.17033  eV     1   --> A'             
     e(  2 -  2) =     -8.27893  eV     1   --> A'             
     e(  3 -  3) =     -6.94427  eV     1   --> A'             
     e(  4 -  4) =     -5.92960  eV     1   --> A''            
     e(  5 -  5) =      5.02538  eV     1   --> A'             
     e(  6 -  6) =      5.90644  eV     1   --> A''            
     e(  7 -  7) =      6.55192  eV     1   --> A''            
     e(  8 -  8) =      7.42794  eV     1   --> A'             
     e(  9 -  9) =      9.45926  eV     1   --> A'             
     e( 10 - 10) =     10.97313  eV     1   --> A'             
     e( 11 - 11) =     11.76251  eV     1   --> A''            
     e( 12 - 12) =     13.77568  eV     1   --> A'             

 **************************************************************************

 **************************************************************************

                    xk=(   0.31363,  -0.18105,   0.00000  )

     Band symmetry, C_s (m)     point group:

     e(  1 -  1) =    -17.77693  eV     1   --> A'             
     e(  2 -  2) =     -8.87101  eV     1   --> A'             
     e(  3 -  3) =     -7.46396  eV     1   --> A'             
     e(  4 -  4) =     -5.47714  eV     1   --> A''            
     e(  5 -  5) =      5.17026  eV     1   --> A''            
     e(  6 -  6) =      5.57823  eV     1   --> A'             
     e(  7 -  7) =      7.08219  eV     1   --> A''            
     e(  8 -  8) =      7.97207  eV     1   --> A'             
     e(  9 -  9) =      9.84446  eV     1   --> A'             
     e( 10 - 10) =     11.20758  eV     1   --> A'             
     e( 11 - 11) =     12.15452  eV     1   --> A''            
     e( 12 - 12) =     14.29338  eV     1   --> A'             

 **************************************************************************

 **************************************************************************

                    xk=(   0.34215,  -0.19751,   0.00000  )

     Band symmetry, C_s (m)     point group:

     e(  1 -  1) =    -17.34937  eV     1   --> A'             
     e(  2 -  2) =     -9.44485  eV     1   --> A'             
     e(  3 -  3) =     -7.98232  eV     1   --> A'             
     e(  4 -  4) =     -4.99113  eV     1   --> A''            
     e(  5 -  5) =      4.44156  eV     1   --> A''            
     e(  6 -  6) =      6.18256  eV     1   --> A'             
     e(  7 -  7) =      7.65339  eV     1   --> A''            
     e(  8 -  8) =      8.56615  eV     1   --> A'             
     e(  9 -  9) =     10.26436  eV     1   --> A'             
     e( 10 - 10) =     11.43147  eV     1   --> A'             
     e( 11 - 11) =     12.48221  eV     1   --> A''            
     e( 12 - 12) =     14.85250  eV     1   --> A'             

 **************************************************************************

 **************************************************************************

                    xk=(   0.37066,  -0.21397,   0.00000  )

     Band symmetry, C_s (m)     point group:

     e(  1 -  1) =    -16.88914  eV     1   --> A'             
     e(  2 -  2) =     -9.99708  eV     1   --> A'             
     e(  3 -  3) =     -8.49291  eV     1   --> A'             
     e(  4 -  4) =     -4.47536  eV     1   --> A''            
     e(  5 -  5) =      3.72811  eV     1   --> A''            
     e(  6 -  6) =      6.83765  eV     1   --> A'             
     e(  7 -  7) =      8.25734  eV     1   --> A''            
     e(  8 -  8) =      9.20871  eV     1   --> A'             
     e(  9 -  9) =     10.71297  eV     1   --> A'             
     e( 10 - 10) =     11.64737  eV     1   --> A'             
     e( 11 - 11) =     12.64954  eV     1   --> A''            
     e( 12 - 12) =     15.44731  eV     1   --> A'             

 **************************************************************************

 **************************************************************************

                    xk=(   0.39917,  -0.23043,   0.00000  )

     Band symmetry, C_s (m)     point group:

     e(  1 -  1) =    -16.39811  eV     1   --> A'             
     e(  2 -  2) =    -10.52478  eV     1   --> A'             
     e(  3 -  3) =     -8.98934  eV     1   --> A'             
     e(  4 -  4) =     -3.93461  eV     1   --> A''            
     e(  5 -  5) =      3.03585  eV     1   --> A''            
     e(  6 -  6) =      7.54240  eV     1   --> A'             
     e(  7 -  7) =      8.87703  eV     1   --> A''            
     e(  8 -  8) =      9.89726  eV     1   --> A'             
     e(  9 -  9) =     11.18205  eV     1   --> A'             
     e( 10 - 10) =     11.85522  eV     1   --> A'             
     e( 11 - 11) =     12.59464  eV     1   --> A''            
     e( 12 - 12) =     15.57058  eV     1   --> A''            

 **************************************************************************

 **************************************************************************

                    xk=(   0.42768,  -0.24689,   0.00000  )

     Band symmetry, C_s (m)     point group:

     e(  1 -  1) =    -15.87931  eV     1   --> A'             
     e(  2 -  2) =    -11.02610  eV     1   --> A'             
     e(  3 -  3) =     -9.46545  eV     1   --> A'             
     e(  4 -  4) =     -3.37531  eV     1   --> A''            
     e(  5 -  5) =      2.36949  eV     1   --> A''            
     e(  6 -  6) =      8.29495  eV     1   --> A'             
     e(  7 -  7) =      9.47346  eV     1   --> A''            
     e(  8 -  8) =     10.62665  eV     1   --> A'             
     e(  9 -  9) =     11.66032  eV     1   --> A'             
     e( 10 - 10) =     12.05126  eV     1   --> A'             
     e( 11 - 11) =     12.42008  eV     1   --> A''            
     e( 12 - 12) =     15.92891  eV     1   --> A''            

 **************************************************************************

 **************************************************************************

                    xk=(   0.45620,  -0.26335,   0.00000  )

     Band symmetry, C_s (m)     point group:

     e(  1 -  1) =    -15.33701  eV     1   --> A'             
     e(  2 -  2) =    -11.49956  eV     1   --> A'             
     e(  3 -  3) =     -9.91475  eV     1   --> A'             
     e(  4 -  4) =     -2.80512  eV     1   --> A''            
     e(  5 -  5) =      1.73330  eV     1   --> A''            
     e(  6 -  6) =      9.09190  eV     1   --> A'             
     e(  7 -  7) =      9.95745  eV     1   --> A''            
     e(  8 -  8) =     11.38391  eV     1   --> A'             
     e(  9 -  9) =     12.13342  eV     1   --> A'             
     e( 10 - 10) =     12.22694  eV     1   --> A'             
     e( 11 - 11) =     12.33703  eV     1   --> A''            
     e( 12 - 12) =     16.28219  eV     1   --> A'             

 **************************************************************************

 **************************************************************************

                    xk=(   0.48471,  -0.27981,   0.00000  )

     Band symmetry, C_s (m)     point group:

     e(  1 -  1) =    -14.77852  eV     1   --> A'             
     e(  2 -  2) =    -11.94393  eV     1   --> A'             
     e(  3 -  3) =    -10.32870  eV     1   --> A'             
     e(  4 -  4) =     -2.23397  eV     1   --> A''            
     e(  5 -  5) =      1.13031  eV     1   --> A''            
     e(  6 -  6) =      9.92634  eV     1   --> A'             
     e(  7 -  7) =     10.20005  eV     1   --> A''            
     e(  8 -  8) =     12.11918  eV     1   --> A'             
     e(  9 -  9) =     12.36664  eV     1   --> A'             
     e( 10 - 10) =     12.55230  eV     1   --> A''            
     e( 11 - 11) =     12.60471  eV     1   --> A'             
     e( 12 - 12) =     15.67383  eV     1   --> A'             

 **************************************************************************

 **************************************************************************

                    xk=(   0.51322,  -0.29627,   0.00000  )

     Band symmetry, C_s (m)     point group:

     e(  1 -  1) =    -14.21723  eV     1   --> A'             
     e(  2 -  2) =    -12.35824  eV     1   --> A'             
     e(  3 -  3) =    -10.69334  eV     1   --> A'             
     e(  4 -  4) =     -1.67353  eV     1   --> A''            
     e(  5 -  5) =      0.56339  eV     1   --> A''            
     e(  6 -  6) =     10.20797  eV     1   --> A''            
     e(  7 -  7) =     10.78187  eV     1   --> A'             
     e(  8 -  8) =     12.44655  eV     1   --> A'             
     e(  9 -  9) =     12.63131  eV     1   --> A'             
     e( 10 - 10) =     13.09502  eV     1   --> A''            
     e( 11 - 11) =     13.19272  eV     1   --> A'             
     e( 12 - 12) =     15.14937  eV     1   --> A'             

 **************************************************************************

 **************************************************************************

                    xk=(   0.54173,  -0.31273,   0.00000  )

     Band symmetry, C_s (m)     point group:

     e(  1 -  1) =    -13.68112  eV     1   --> A'             
     e(  2 -  2) =    -12.74181  eV     1   --> A'             
     e(  3 -  3) =    -10.98157  eV     1   --> A'             
     e(  4 -  4) =     -1.13775  eV     1   --> A''            
     e(  5 -  5) =      0.03460  eV     1   --> A''            
     e(  6 -  6) =     10.13172  eV     1   --> A''            
     e(  7 -  7) =     11.60991  eV     1   --> A'             
     e(  8 -  8) =     12.43570  eV     1   --> A'             
     e(  9 -  9) =     12.81073  eV     1   --> A'             
     e( 10 - 10) =     13.81737  eV     1   --> A''            
     e( 11 - 11) =     13.86381  eV     1   --> A'             
     e( 12 - 12) =     14.72825  eV     1   --> A'             

 **************************************************************************

 **************************************************************************

                    xk=(   0.57024,  -0.32919,   0.00000  )

     Band symmetry, C_s (m)     point group:

     e(  1 -  1) =    -13.23185  eV     1   --> A'             
     e(  2 -  2) =    -13.09415  eV     1   --> A'             
     e(  3 -  3) =    -11.13363  eV     1   --> A'             
     e(  4 -  4) =     -0.64174  eV     1   --> A''            
     e(  5 -  5) =     -0.45419  eV     1   --> A''            
     e(  6 -  6) =     10.08162  eV     1   --> A''            
     e(  7 -  7) =     12.22175  eV     1   --> A'             
     e(  8 -  8) =     12.31356  eV     1   --> A'             
     e(  9 -  9) =     12.80806  eV     1   --> A'             
     e( 10 - 10) =     14.30172  eV     1   --> A'             
     e( 11 - 11) =     14.41045  eV     1   --> A'             
     e( 12 - 12) =     14.53502  eV     1   --> A''            

 **************************************************************************

 **************************************************************************

                    xk=(   0.55613,  -0.33767,   0.00000  )

     Band symmetry, C_s (m)     point group:

     e(  1 -  1) =    -13.36848  eV     1   --> A'             
     e(  2 -  2) =    -12.99267  eV     1   --> A'             
     e(  3 -  3) =    -11.08513  eV     1   --> A'             
     e(  4 -  4) =     -0.82931  eV     1   --> A''            
     e(  5 -  5) =     -0.26961  eV     1   --> A''            
     e(  6 -  6) =     10.09711  eV     1   --> A''            
     e(  7 -  7) =     12.10924  eV     1   --> A'             
     e(  8 -  8) =     12.29798  eV     1   --> A'             
     e(  9 -  9) =     12.78439  eV     1   --> A'             
     e( 10 - 10) =     14.19446  eV     1   --> A'             
     e( 11 - 11) =     14.31656  eV     1   --> A''            
     e( 12 - 12) =     14.49233  eV     1   --> A'             

 **************************************************************************

 **************************************************************************

                    xk=(   0.54202,  -0.34614,   0.00000  )

     Band symmetry, C_s (m)     point group:

     e(  1 -  1) =    -13.51591  eV     1   --> A'             
     e(  2 -  2) =    -12.93504  eV     1   --> A'             
     e(  3 -  3) =    -10.96356  eV     1   --> A'             
     e(  4 -  4) =     -1.03584  eV     1   --> A''            
     e(  5 -  5) =     -0.07184  eV     1   --> A''            
     e(  6 -  6) =     10.13645  eV     1   --> A''            
     e(  7 -  7) =     11.97445  eV     1   --> A'             
     e(  8 -  8) =     12.19226  eV     1   --> A'             
     e(  9 -  9) =     12.65635  eV     1   --> A'             
     e( 10 - 10) =     14.07718  eV     1   --> A'             
     e( 11 - 11) =     14.08234  eV     1   --> A''            
     e( 12 - 12) =     14.46235  eV     1   --> A'             

 **************************************************************************

 **************************************************************************

                    xk=(   0.52791,  -0.35462,   0.00000  )

     Band symmetry, C_s (m)     point group:

     e(  1 -  1) =    -13.65737  eV     1   --> A'             
     e(  2 -  2) =    -12.93047  eV     1   --> A'             
     e(  3 -  3) =    -10.77727  eV     1   --> A'             
     e(  4 -  4) =     -1.23470  eV     1   --> A''            
     e(  5 -  5) =      0.11174  eV     1   --> A''            
     e(  6 -  6) =     10.20034  eV     1   --> A''            
     e(  7 -  7) =     11.82874  eV     1   --> A'             
     e(  8 -  8) =     12.03677  eV     1   --> A'             
     e(  9 -  9) =     12.42185  eV     1   --> A'             
     e( 10 - 10) =     13.85754  eV     1   --> A''            
     e( 11 - 11) =     13.95987  eV     1   --> A'             
     e( 12 - 12) =     14.34052  eV     1   --> A'             

 **************************************************************************

 **************************************************************************

                    xk=(   0.51380,  -0.36310,   0.00000  )

     Band symmetry, C_s (m)     point group:

     e(  1 -  1) =    -13.79143  eV     1   --> A'             
     e(  2 -  2) =    -12.96521  eV     1   --> A'             
     e(  3 -  3) =    -10.54224  eV     1   --> A'             
     e(  4 -  4) =     -1.42359  eV     1   --> A''            
     e(  5 -  5) =      0.27812  eV     1   --> A''            
     e(  6 -  6) =     10.28805  eV     1   --> A''            
     e(  7 -  7) =     11.67473  eV     1   --> A'             
     e(  8 -  8) =     11.83121  eV     1   --> A'             
     e(  9 -  9) =     12.13887  eV     1   --> A'             
     e( 10 - 10) =     13.64446  eV     1   --> A''            
     e( 11 - 11) =     13.84180  eV     1   --> A'             
     e( 12 - 12) =     14.19433  eV     1   --> A'             

 **************************************************************************

 **************************************************************************

                    xk=(   0.49968,  -0.37158,   0.00000  )

     Band symmetry, C_s (m)     point group:

     e(  1 -  1) =    -13.91765  eV     1   --> A'             
     e(  2 -  2) =    -13.02470  eV     1   --> A'             
     e(  3 -  3) =    -10.27465  eV     1   --> A'             
     e(  4 -  4) =     -1.60186  eV     1   --> A''            
     e(  5 -  5) =      0.42647  eV     1   --> A''            
     e(  6 -  6) =     10.39748  eV     1   --> A''            
     e(  7 -  7) =     11.47358  eV     1   --> A'             
     e(  8 -  8) =     11.57698  eV     1   --> A'             
     e(  9 -  9) =     11.89046  eV     1   --> A'             
     e( 10 - 10) =     13.44373  eV     1   --> A''            
     e( 11 - 11) =     13.72319  eV     1   --> A'             
     e( 12 - 12) =     14.04493  eV     1   --> A'             

 **************************************************************************

 **************************************************************************

                    xk=(   0.48557,  -0.38006,   0.00000  )

     Band symmetry, C_s (m)     point group:

     e(  1 -  1) =    -14.03590  eV     1   --> A'             
     e(  2 -  2) =    -13.09794  eV     1   --> A'             
     e(  3 -  3) =     -9.98675  eV     1   --> A'             
     e(  4 -  4) =     -1.76921  eV     1   --> A''            
     e(  5 -  5) =      0.55686  eV     1   --> A''            
     e(  6 -  6) =     10.52514  eV     1   --> A''            
     e(  7 -  7) =     11.10609  eV     1   --> A'             
     e(  8 -  8) =     11.40597  eV     1   --> A'             
     e(  9 -  9) =     11.69681  eV     1   --> A'             
     e( 10 - 10) =     13.25558  eV     1   --> A''            
     e( 11 - 11) =     13.60513  eV     1   --> A'             
     e( 12 - 12) =     13.89852  eV     1   --> A'             

 **************************************************************************

 **************************************************************************

                    xk=(   0.47146,  -0.38854,   0.00000  )

     Band symmetry, C_s (m)     point group:

     e(  1 -  1) =    -14.14613  eV     1   --> A'             
     e(  2 -  2) =    -13.17758  eV     1   --> A'             
     e(  3 -  3) =     -9.68749  eV     1   --> A'             
     e(  4 -  4) =     -1.92565  eV     1   --> A''            
     e(  5 -  5) =      0.66972  eV     1   --> A''            
     e(  6 -  6) =     10.66608  eV     1   --> A''            
     e(  7 -  7) =     10.67771  eV     1   --> A'             
     e(  8 -  8) =     11.26294  eV     1   --> A'             
     e(  9 -  9) =     11.52957  eV     1   --> A'             
     e( 10 - 10) =     13.08010  eV     1   --> A''            
     e( 11 - 11) =     13.48932  eV     1   --> A'             
     e( 12 - 12) =     13.75741  eV     1   --> A'             

 **************************************************************************

 **************************************************************************

                    xk=(   0.45735,  -0.39702,   0.00000  )

     Band symmetry, C_s (m)     point group:

     e(  1 -  1) =    -14.24824  eV     1   --> A'             
     e(  2 -  2) =    -13.25885  eV     1   --> A'             
     e(  3 -  3) =     -9.38376  eV     1   --> A'             
     e(  4 -  4) =     -2.07072  eV     1   --> A''            
     e(  5 -  5) =      0.76595  eV     1   --> A''            
     e(  6 -  6) =     10.23407  eV     1   --> A'             
     e(  7 -  7) =     10.81398  eV     1   --> A''            
     e(  8 -  8) =     11.12996  eV     1   --> A'             
     e(  9 -  9) =     11.37679  eV     1   --> A'             
     e( 10 - 10) =     12.91741  eV     1   --> A''            
     e( 11 - 11) =     13.37751  eV     1   --> A'             
     e( 12 - 12) =     13.62290  eV     1   --> A'             

 **************************************************************************

 **************************************************************************

                    xk=(   0.44323,  -0.40550,   0.00000  )

     Band symmetry, C_s (m)     point group:

     e(  1 -  1) =    -14.34224  eV     1   --> A'             
     e(  2 -  2) =    -13.33870  eV     1   --> A'             
     e(  3 -  3) =     -9.08070  eV     1   --> A'             
     e(  4 -  4) =     -2.20448  eV     1   --> A''            
     e(  5 -  5) =      0.84685  eV     1   --> A''            
     e(  6 -  6) =      9.79043  eV     1   --> A'             
     e(  7 -  7) =     10.96172  eV     1   --> A''            
     e(  8 -  8) =     11.00621  eV     1   --> A'             
     e(  9 -  9) =     11.23550  eV     1   --> A'             
     e( 10 - 10) =     12.76754  eV     1   --> A''            
     e( 11 - 11) =     13.27121  eV     1   --> A'             
     e( 12 - 12) =     13.49590  eV     1   --> A'             

 **************************************************************************

 **************************************************************************

                    xk=(   0.42912,  -0.41398,   0.00000  )

     Band symmetry, C_s (m)     point group:

     e(  1 -  1) =    -14.42816  eV     1   --> A'             
     e(  2 -  2) =    -13.41510  eV     1   --> A'             
     e(  3 -  3) =     -8.78273  eV     1   --> A'             
     e(  4 -  4) =     -2.32683  eV     1   --> A''            
     e(  5 -  5) =      0.91388  eV     1   --> A''            
     e(  6 -  6) =      9.35689  eV     1   --> A'             
     e(  7 -  7) =     10.89209  eV     1   --> A'             
     e(  8 -  8) =     11.10186  eV     1   --> A''            
     e(  9 -  9) =     11.10517  eV     1   --> A'             
     e( 10 - 10) =     12.63050  eV     1   --> A''            
     e( 11 - 11) =     13.17167  eV     1   --> A'             
     e( 12 - 12) =     13.37724  eV     1   --> A'             

 **************************************************************************

 **************************************************************************

                    xk=(   0.41501,  -0.42246,   0.00000  )

     Band symmetry, C_s (m)     point group:

     e(  1 -  1) =    -14.50590  eV     1   --> A'             
     e(  2 -  2) =    -13.48655  eV     1   --> A'             
     e(  3 -  3) =     -8.49422  eV     1   --> A'             
     e(  4 -  4) =     -2.43772  eV     1   --> A''            
     e(  5 -  5) =      0.96858  eV     1   --> A''            
     e(  6 -  6) =      8.94033  eV     1   --> A'             
     e(  7 -  7) =     10.78807  eV     1   --> A'             
     e(  8 -  8) =     10.98591  eV     1   --> A'             
     e(  9 -  9) =     11.22774  eV     1   --> A''            
     e( 10 - 10) =     12.50632  eV     1   --> A''            
     e( 11 - 11) =     13.07994  eV     1   --> A'             
     e( 12 - 12) =     13.26764  eV     1   --> A'             

 **************************************************************************

 **************************************************************************

                    xk=(   0.40090,  -0.43094,   0.00000  )

     Band symmetry, C_s (m)     point group:

     e(  1 -  1) =    -14.57546  eV     1   --> A'             
     e(  2 -  2) =    -13.55211  eV     1   --> A'             
     e(  3 -  3) =     -8.21912  eV     1   --> A'             
     e(  4 -  4) =     -2.53708  eV     1   --> A''            
     e(  5 -  5) =      1.01257  eV     1   --> A''            
     e(  6 -  6) =      8.54712  eV     1   --> A'             
     e(  7 -  7) =     10.69456  eV     1   --> A'             
     e(  8 -  8) =     10.87801  eV     1   --> A'             
     e(  9 -  9) =     11.33464  eV     1   --> A''            
     e( 10 - 10) =     12.39500  eV     1   --> A''            
     e( 11 - 11) =     12.99681  eV     1   --> A'             
     e( 12 - 12) =     13.16771  eV     1   --> A'             

 **************************************************************************

 **************************************************************************

                    xk=(   0.38679,  -0.43941,   0.00000  )

     Band symmetry, C_s (m)     point group:

     e(  1 -  1) =    -14.63687  eV     1   --> A'             
     e(  2 -  2) =    -13.61107  eV     1   --> A'             
     e(  3 -  3) =     -7.96178  eV     1   --> A'             
     e(  4 -  4) =     -2.62487  eV     1   --> A''            
     e(  5 -  5) =      1.04740  eV     1   --> A''            
     e(  6 -  6) =      8.18278  eV     1   --> A'             
     e(  7 -  7) =     10.61185  eV     1   --> A'             
     e(  8 -  8) =     10.78178  eV     1   --> A'             
     e(  9 -  9) =     11.42052  eV     1   --> A''            
     e( 10 - 10) =     12.29656  eV     1   --> A''            
     e( 11 - 11) =     12.92288  eV     1   --> A'             
     e( 12 - 12) =     13.07800  eV     1   --> A'             

 **************************************************************************

 **************************************************************************

                    xk=(   0.37267,  -0.44789,   0.00000  )

     Band symmetry, C_s (m)     point group:

     e(  1 -  1) =    -14.69008  eV     1   --> A'             
     e(  2 -  2) =    -13.66292  eV     1   --> A'             
     e(  3 -  3) =     -7.72647  eV     1   --> A'             
     e(  4 -  4) =     -2.70105  eV     1   --> A''            
     e(  5 -  5) =      1.07449  eV     1   --> A''            
     e(  6 -  6) =      7.85274  eV     1   --> A'             
     e(  7 -  7) =     10.54013  eV     1   --> A'             
     e(  8 -  8) =     10.69755  eV     1   --> A'             
     e(  9 -  9) =     11.48595  eV     1   --> A''            
     e( 10 - 10) =     12.21100  eV     1   --> A''            
     e( 11 - 11) =     12.85857  eV     1   --> A'             
     e( 12 - 12) =     12.99898  eV     1   --> A'             

 **************************************************************************

 **************************************************************************

                    xk=(   0.35856,  -0.45637,   0.00000  )

     Band symmetry, C_s (m)     point group:

     e(  1 -  1) =    -14.73512  eV     1   --> A'             
     e(  2 -  2) =    -13.70731  eV     1   --> A'             
     e(  3 -  3) =     -7.51713  eV     1   --> A'             
     e(  4 -  4) =     -2.76556  eV     1   --> A''            
     e(  5 -  5) =      1.09521  eV     1   --> A''            
     e(  6 -  6) =      7.56247  eV     1   --> A'             
     e(  7 -  7) =     10.47953  eV     1   --> A'             
     e(  8 -  8) =     10.62560  eV     1   --> A'             
     e(  9 -  9) =     11.53347  eV     1   --> A''            
     e( 10 - 10) =     12.13836  eV     1   --> A''            
     e( 11 - 11) =     12.80419  eV     1   --> A'             
     e( 12 - 12) =     12.93105  eV     1   --> A'             

 **************************************************************************

 **************************************************************************

                    xk=(   0.34445,  -0.46485,   0.00000  )

     Band symmetry, C_s (m)     point group:

     e(  1 -  1) =    -14.77197  eV     1   --> A'             
     e(  2 -  2) =    -13.74396  eV     1   --> A'             
     e(  3 -  3) =     -7.33858  eV     1   --> A'             
     e(  4 -  4) =     -2.81838  eV     1   --> A''            
     e(  5 -  5) =      1.11058  eV     1   --> A''            
     e(  6 -  6) =      7.31673  eV     1   --> A'             
     e(  7 -  7) =     10.43007  eV     1   --> A'             
     e(  8 -  8) =     10.56621  eV     1   --> A'             
     e(  9 -  9) =     11.56644  eV     1   --> A''            
     e( 10 - 10) =     12.07869  eV     1   --> A''            
     e( 11 - 11) =     12.75986  eV     1   --> A'             
     e( 12 - 12) =     12.87464  eV     1   --> A'             

 **************************************************************************

 **************************************************************************

                    xk=(   0.33034,  -0.47333,   0.00000  )

     Band symmetry, C_s (m)     point group:

     e(  1 -  1) =    -14.80069  eV     1   --> A'             
     e(  2 -  2) =    -13.77271  eV     1   --> A'             
     e(  3 -  3) =     -7.19474  eV     1   --> A'             
     e(  4 -  4) =     -2.85956  eV     1   --> A''            
     e(  5 -  5) =      1.12155  eV     1   --> A''            
     e(  6 -  6) =      7.12006  eV     1   --> A'             
     e(  7 -  7) =     10.39173  eV     1   --> A'             
     e(  8 -  8) =     10.51965  eV     1   --> A'             
     e(  9 -  9) =     11.58825  eV     1   --> A''            
     e( 10 - 10) =     12.03205  eV     1   --> A''            
     e( 11 - 11) =     12.72561  eV     1   --> A'             
     e( 12 - 12) =     12.83014  eV     1   --> A'             

 **************************************************************************

 **************************************************************************

                    xk=(   0.31623,  -0.48181,   0.00000  )

     Band symmetry, C_s (m)     point group:

     e(  1 -  1) =    -14.82117  eV     1   --> A'             
     e(  2 -  2) =    -13.79330  eV     1   --> A'             
     e(  3 -  3) =     -7.08913  eV     1   --> A'             
     e(  4 -  4) =     -2.88892  eV     1   --> A''            
     e(  5 -  5) =      1.12865  eV     1   --> A''            
     e(  6 -  6) =      6.97650  eV     1   --> A'             
     e(  7 -  7) =     10.36445  eV     1   --> A'             
     e(  8 -  8) =     10.48616  eV     1   --> A'             
     e(  9 -  9) =     11.60174  eV     1   --> A''            
     e( 10 - 10) =     11.99859  eV     1   --> A''            
     e( 11 - 11) =     12.70134  eV     1   --> A'             
     e( 12 - 12) =     12.79795  eV     1   --> A'             

 **************************************************************************

 **************************************************************************

                    xk=(   0.30211,  -0.49029,   0.00000  )

     Band symmetry, C_s (m)     point group:

     e(  1 -  1) =    -14.83345  eV     1   --> A'             
     e(  2 -  2) =    -13.80569  eV     1   --> A'             
     e(  3 -  3) =     -7.02462  eV     1   --> A'             
     e(  4 -  4) =     -2.90650  eV     1   --> A''            
     e(  5 -  5) =      1.13284  eV     1   --> A''            
     e(  6 -  6) =      6.88897  eV     1   --> A'             
     e(  7 -  7) =     10.34813  eV     1   --> A'             
     e(  8 -  8) =     10.46598  eV     1   --> A'             
     e(  9 -  9) =     11.60906  eV     1   --> A''            
     e( 10 - 10) =     11.97844  eV     1   --> A''            
     e( 11 - 11) =     12.68690  eV     1   --> A'             
     e( 12 - 12) =     12.77844  eV     1   --> A'             

 **************************************************************************

 **************************************************************************

                    xk=(   0.28800,  -0.49877,   0.00000  )

     Band symmetry, C_s (m)     point group:

     e(  1 -  1) =    -14.83755  eV     1   --> A'             
     e(  2 -  2) =    -13.80982  eV     1   --> A'             
     e(  3 -  3) =     -7.00290  eV     1   --> A'             
     e(  4 -  4) =     -2.91238  eV     1   --> A''            
     e(  5 -  5) =      1.13426  eV     1   --> A''            
     e(  6 -  6) =      6.85960  eV     1   --> A'             
     e(  7 -  7) =     10.34270  eV     1   --> A'             
     e(  8 -  8) =     10.45924  eV     1   --> A'             
     e(  9 -  9) =     11.61139  eV     1   --> A''            
     e( 10 - 10) =     11.97171  eV     1   --> A''            
     e( 11 - 11) =     12.68210  eV     1   --> A'             
     e( 12 - 12) =     12.77190  eV     1   --> A'             

 **************************************************************************

     BANDS        :     1.17s CPU         1.62s WALL


   This run was terminated on:  14:37:26  20Feb2023            

=------------------------------------------------------------------------------=
   JOB DONE.
=------------------------------------------------------------------------------=
