
     Program DOS v.6.3MaX starts on 20Feb2023 at 21:26:59 

     This program is part of the open-source Quantum ESPRESSO suite
     for quantum simulation of materials; please cite
         "P. Giannozzi et al., J. Phys.:Condens. Matter 21 395502 (2009);
         "P. Giannozzi et al., J. Phys.:Condens. Matter 29 465901 (2017);
          URL http://www.quantum-espresso.org", 
     in publications or presentations arising from this work. More details at
     http://www.quantum-espresso.org/quote

     Parallel version (MPI), running on     4 processors

     MPI processes distributed on     1 nodes
     R & G space division:  proc/nbgrp/npool/nimage =       4
     Message from routine volume:
     axis vectors are left-handed
     Message from routine volume:
     axis vectors are left-handed

     IMPORTANT: XC functional enforced from input :
     Exchange-correlation      = PBE ( 1  4  3  4 0 0)
     Any further DFT definition will be discarded
     Please, verify this is what you really want


     Parallelization info
     --------------------
     sticks:   dense  smooth     PW     G-vecs:    dense   smooth      PW
     Min          60      60     21                 3100     3100     667
     Max          61      61     22                 3113     3113     680
     Sum         241     241     85                12417    12417    2687


     Check: negative/imaginary core charge=   -0.000019    0.000000

     negative rho (up, down):  1.259E-03 0.000E+00

     Tetrahedra used


     DOS          :    30.01s CPU        30.16s WALL


   This run was terminated on:  21:27:29  20Feb2023            

=------------------------------------------------------------------------------=
   JOB DONE.
=------------------------------------------------------------------------------=
