
     Program PWSCF v.6.3MaX starts on 20Feb2023 at 21:26:48 

     This program is part of the open-source Quantum ESPRESSO suite
     for quantum simulation of materials; please cite
         "P. Giannozzi et al., J. Phys.:Condens. Matter 21 395502 (2009);
         "P. Giannozzi et al., J. Phys.:Condens. Matter 29 465901 (2017);
          URL http://www.quantum-espresso.org", 
     in publications or presentations arising from this work. More details at
     http://www.quantum-espresso.org/quote

     Parallel version (MPI), running on     4 processors

     MPI processes distributed on     1 nodes
     R & G space division:  proc/nbgrp/npool/nimage =       4
     Waiting for input...
     Reading input from standard input

     Current dimensions of program PWSCF are:
     Max number of different atomic species (ntypx) = 10
     Max number of k-points (npk) =  40000
     Max angular momentum in pseudopotentials (lmaxx) =  3
     Message from routine volume:
     axis vectors are left-handed

     Atomic positions and unit cell read from directory:
     ./Graphene.save/
     Message from routine volume:
     axis vectors are left-handed


     Subspace diagonalization in iterative solution of the eigenvalue problem:
     a serial algorithm will be used


     Parallelization info
     --------------------
     sticks:   dense  smooth     PW     G-vecs:    dense   smooth      PW
     Min          60      60     21                 3100     3100     667
     Max          61      61     22                 3113     3113     680
     Sum         241     241     85                12417    12417    2687



     bravais-lattice index     =            0
     lattice parameter (alat)  =       4.6476  a.u.
     unit-cell volume          =     363.9343 (a.u.)^3
     number of atoms/cell      =            2
     number of atomic types    =            1
     number of electrons       =         8.00
     number of Kohn-Sham states=           12
     kinetic-energy cutoff     =      40.0000  Ry
     charge density cutoff     =     160.0000  Ry
     Exchange-correlation      = PBE ( 1  4  3  4 0 0)

     celldm(1)=   8.068683  celldm(2)=   0.577427  celldm(3)=   2.399649
     celldm(4)=   0.000000  celldm(5)=   0.000000  celldm(6)=   0.000000

     crystal axes: (cart. coord. in units of alat)
               a(1) = (   0.868050   0.501236   0.000000 )  
               a(2) = (   0.868050  -0.501236   0.000000 )  
               a(3) = (   0.000000   0.000000   4.166030 )  

     reciprocal axes: (cart. coord. in units 2 pi/alat)
               b(1) = (  0.576004  0.997535 -0.000000 )  
               b(2) = (  0.576004 -0.997535 -0.000000 )  
               b(3) = ( -0.000000 -0.000000  0.240037 )  


     PseudoPot. # 1 for C  read from file:
     /q-e-qe-6.3/pseudo/C.pbe-n-rrkjus_psl.1.0.0.UPF
     MD5 check sum: 1fdd950c42eb37d8afe3dd2f8d12311e
     Pseudo is Ultrasoft + core correction, Zval =  4.0
     Generated using "atomic" code by A. Dal Corso v.6.3MaX
     Using radial grid of 1073 points,  4 beta functions with: 
                l(1) =   0
                l(2) =   0
                l(3) =   1
                l(4) =   1
     Q(r) pseudized with 0 coefficients 


     atomic species   valence    mass     pseudopotential
        C              4.00    12.01100     C ( 1.00)

      4 Sym. Ops. (no inversion) found



   Cartesian axes

     site n.     atom                  positions (alat units)
         1           C   tau(   1) = (   0.0000000   0.0000000   0.0000000  )
         2           C   tau(   2) = (   0.5787407   0.0000000   0.0000000  )

     number of k points=   301 (tetrahedron method)

     Number of k-points >= 100: set verbosity='high' to print them.

     Dense  grid:    12417 G-vectors     FFT dimensions: (  20,  20,  80)

     Estimated max dynamical RAM per process >       3.49 MB

     Estimated total dynamical RAM >      13.97 MB

     Check: negative/imaginary core charge=   -0.000019    0.000000

     The potential is recalculated from file :
     ./Graphene.save/charge-density.dat


     negative rho (up, down):  1.259E-03 0.000E+00
     Starting wfcs are    8 randomized atomic wfcs +    4 random wfcs

     Band Structure Calculation
     Davidson diagonalization with overlap

     ethr =  1.25E-10,  avg # of iterations = 19.2

     total cpu time spent up to now is       42.6 secs

     End of band structure calculation

     Number of k-points >= 100: set verbosity='high' to print the bands.

     the Fermi energy is    -0.5479 ev

     Writing output data file Graphene.save/

     init_run     :      0.11s CPU      0.14s WALL (       1 calls)
     electrons    :     33.11s CPU     41.78s WALL (       1 calls)

     Called by init_run:
     wfcinit      :      0.00s CPU      0.00s WALL (       1 calls)
     potinit      :      0.01s CPU      0.01s WALL (       1 calls)
     hinit0       :      0.09s CPU      0.11s WALL (       1 calls)

     Called by electrons:
     c_bands      :     33.04s CPU     41.71s WALL (       1 calls)
     v_of_rho     :      0.01s CPU      0.01s WALL (       1 calls)
     newd         :      0.01s CPU      0.02s WALL (       1 calls)

     Called by c_bands:
     init_us_2    :      0.04s CPU      0.04s WALL (     301 calls)
     cegterg      :     31.06s CPU     39.08s WALL (     405 calls)

     Called by sum_band:

     Called by *egterg:
     h_psi        :     20.82s CPU     27.20s WALL (    6499 calls)
     s_psi        :      0.73s CPU      0.79s WALL (    6499 calls)
     g_psi        :      0.05s CPU      0.11s WALL (    5793 calls)
     cdiaghg      :      3.39s CPU      3.64s WALL (    6094 calls)

     Called by h_psi:
     h_psi:pot    :     20.76s CPU     27.10s WALL (    6499 calls)
     h_psi:calbec :      1.08s CPU      1.33s WALL (    6499 calls)
     vloc_psi     :     18.97s CPU     24.88s WALL (    6499 calls)
     add_vuspsi   :      0.68s CPU      0.82s WALL (    6499 calls)

     General routines
     calbec       :      1.07s CPU      1.29s WALL (    6499 calls)
     fft          :      0.00s CPU      0.01s WALL (      13 calls)
     fftw         :     18.10s CPU     23.41s WALL (   95556 calls)
     davcio       :      0.02s CPU      0.04s WALL (     602 calls)

     Parallel routines
     fft_scatt_xy :      1.12s CPU      1.59s WALL (   95569 calls)
     fft_scatt_yz :      4.79s CPU      7.70s WALL (   95569 calls)

     PWSCF        :    33.98s CPU        43.78s WALL


   This run was terminated on:  21:27:32  20Feb2023            

=------------------------------------------------------------------------------=
   JOB DONE.
=------------------------------------------------------------------------------=
