
     Program PWSCF v.6.3MaX starts on 20Feb2023 at 14:37:18 

     This program is part of the open-source Quantum ESPRESSO suite
     for quantum simulation of materials; please cite
         "P. Giannozzi et al., J. Phys.:Condens. Matter 21 395502 (2009);
         "P. Giannozzi et al., J. Phys.:Condens. Matter 29 465901 (2017);
          URL http://www.quantum-espresso.org", 
     in publications or presentations arising from this work. More details at
     http://www.quantum-espresso.org/quote

     Parallel version (MPI), running on     4 processors

     MPI processes distributed on     1 nodes
     R & G space division:  proc/nbgrp/npool/nimage =       4
     Waiting for input...
     Reading input from standard input

     Current dimensions of program PWSCF are:
     Max number of different atomic species (ntypx) = 10
     Max number of k-points (npk) =  40000
     Max angular momentum in pseudopotentials (lmaxx) =  3
     Message from routine volume:
     axis vectors are left-handed

     Atomic positions and unit cell read from directory:
     ./Graphene.save/
     Message from routine volume:
     axis vectors are left-handed


     Subspace diagonalization in iterative solution of the eigenvalue problem:
     a serial algorithm will be used


     Parallelization info
     --------------------
     sticks:   dense  smooth     PW     G-vecs:    dense   smooth      PW
     Min          60      60     21                 3100     3100     581
     Max          61      61     22                 3113     3113     586
     Sum         241     241     85                12417    12417    2337



     bravais-lattice index     =            0
     lattice parameter (alat)  =       4.6476  a.u.
     unit-cell volume          =     363.9343 (a.u.)^3
     number of atoms/cell      =            2
     number of atomic types    =            1
     number of electrons       =         8.00
     number of Kohn-Sham states=           12
     kinetic-energy cutoff     =      40.0000  Ry
     charge density cutoff     =     160.0000  Ry
     Exchange-correlation      = PBE ( 1  4  3  4 0 0)

     celldm(1)=   8.068683  celldm(2)=   0.577427  celldm(3)=   2.399649
     celldm(4)=   0.000000  celldm(5)=   0.000000  celldm(6)=   0.000000

     crystal axes: (cart. coord. in units of alat)
               a(1) = (   0.868050   0.501236   0.000000 )  
               a(2) = (   0.868050  -0.501236   0.000000 )  
               a(3) = (   0.000000   0.000000   4.166030 )  

     reciprocal axes: (cart. coord. in units 2 pi/alat)
               b(1) = (  0.576004  0.997535 -0.000000 )  
               b(2) = (  0.576004 -0.997535 -0.000000 )  
               b(3) = ( -0.000000 -0.000000  0.240037 )  


     PseudoPot. # 1 for C  read from file:
     /q-e-qe-6.3/pseudo/C.pbe-n-rrkjus_psl.1.0.0.UPF
     MD5 check sum: 1fdd950c42eb37d8afe3dd2f8d12311e
     Pseudo is Ultrasoft + core correction, Zval =  4.0
     Generated using "atomic" code by A. Dal Corso v.6.3MaX
     Using radial grid of 1073 points,  4 beta functions with: 
                l(1) =   0
                l(2) =   0
                l(3) =   1
                l(4) =   1
     Q(r) pseudized with 0 coefficients 


     atomic species   valence    mass     pseudopotential
        C              4.00    12.01100     C ( 1.00)

      4 Sym. Ops. (no inversion) found



   Cartesian axes

     site n.     atom                  positions (alat units)
         1           C   tau(   1) = (   0.0000000   0.0000000   0.0000000  )
         2           C   tau(   2) = (   0.5787407   0.0000000   0.0000000  )

     number of k points=    61
                       cart. coord. in units 2pi/alat
        k(    1) = (   0.2880019  -0.4987675   0.0000000), wk =   0.0327869
        k(    2) = (   0.2736018  -0.4738291   0.0000000), wk =   0.0327869
        k(    3) = (   0.2592017  -0.4488907   0.0000000), wk =   0.0327869
        k(    4) = (   0.2448016  -0.4239524   0.0000000), wk =   0.0327869
        k(    5) = (   0.2304015  -0.3990140   0.0000000), wk =   0.0327869
        k(    6) = (   0.2160014  -0.3740756   0.0000000), wk =   0.0327869
        k(    7) = (   0.2016013  -0.3491372   0.0000000), wk =   0.0327869
        k(    8) = (   0.1872012  -0.3241989   0.0000000), wk =   0.0327869
        k(    9) = (   0.1728011  -0.2992605   0.0000000), wk =   0.0327869
        k(   10) = (   0.1584011  -0.2743221   0.0000000), wk =   0.0327869
        k(   11) = (   0.1440010  -0.2493837   0.0000000), wk =   0.0327869
        k(   12) = (   0.1296009  -0.2244454   0.0000000), wk =   0.0327869
        k(   13) = (   0.1152008  -0.1995070   0.0000000), wk =   0.0327869
        k(   14) = (   0.1008007  -0.1745686   0.0000000), wk =   0.0327869
        k(   15) = (   0.0864006  -0.1496302   0.0000000), wk =   0.0327869
        k(   16) = (   0.0720005  -0.1246919   0.0000000), wk =   0.0327869
        k(   17) = (   0.0576004  -0.0997535   0.0000000), wk =   0.0327869
        k(   18) = (   0.0432003  -0.0748151   0.0000000), wk =   0.0327869
        k(   19) = (   0.0288002  -0.0498767   0.0000000), wk =   0.0327869
        k(   20) = (   0.0144001  -0.0249384   0.0000000), wk =   0.0327869
        k(   21) = (   0.0000000   0.0000000   0.0000000), wk =   0.0327869
        k(   22) = (   0.0285122  -0.0164593   0.0000000), wk =   0.0327869
        k(   23) = (   0.0570244  -0.0329187   0.0000000), wk =   0.0327869
        k(   24) = (   0.0855366  -0.0493780   0.0000000), wk =   0.0327869
        k(   25) = (   0.1140488  -0.0658373   0.0000000), wk =   0.0327869
        k(   26) = (   0.1425609  -0.0822966   0.0000000), wk =   0.0327869
        k(   27) = (   0.1710731  -0.0987560   0.0000000), wk =   0.0327869
        k(   28) = (   0.1995853  -0.1152153   0.0000000), wk =   0.0327869
        k(   29) = (   0.2280975  -0.1316746   0.0000000), wk =   0.0327869
        k(   30) = (   0.2566097  -0.1481339   0.0000000), wk =   0.0327869
        k(   31) = (   0.2851219  -0.1645933   0.0000000), wk =   0.0327869
        k(   32) = (   0.3136341  -0.1810526   0.0000000), wk =   0.0327869
        k(   33) = (   0.3421463  -0.1975119   0.0000000), wk =   0.0327869
        k(   34) = (   0.3706585  -0.2139713   0.0000000), wk =   0.0327869
        k(   35) = (   0.3991707  -0.2304306   0.0000000), wk =   0.0327869
        k(   36) = (   0.4276828  -0.2468899   0.0000000), wk =   0.0327869
        k(   37) = (   0.4561950  -0.2633492   0.0000000), wk =   0.0327869
        k(   38) = (   0.4847072  -0.2798086   0.0000000), wk =   0.0327869
        k(   39) = (   0.5132194  -0.2962679   0.0000000), wk =   0.0327869
        k(   40) = (   0.5417316  -0.3127272   0.0000000), wk =   0.0327869
        k(   41) = (   0.5702438  -0.3291865   0.0000000), wk =   0.0327869
        k(   42) = (   0.5561317  -0.3376656   0.0000000), wk =   0.0327869
        k(   43) = (   0.5420196  -0.3461446   0.0000000), wk =   0.0327869
        k(   44) = (   0.5279075  -0.3546237   0.0000000), wk =   0.0327869
        k(   45) = (   0.5137954  -0.3631027   0.0000000), wk =   0.0327869
        k(   46) = (   0.4996833  -0.3715818   0.0000000), wk =   0.0327869
        k(   47) = (   0.4855712  -0.3800608   0.0000000), wk =   0.0327869
        k(   48) = (   0.4714591  -0.3885399   0.0000000), wk =   0.0327869
        k(   49) = (   0.4573470  -0.3970189   0.0000000), wk =   0.0327869
        k(   50) = (   0.4432349  -0.4054980   0.0000000), wk =   0.0327869
        k(   51) = (   0.4291229  -0.4139770   0.0000000), wk =   0.0327869
        k(   52) = (   0.4150108  -0.4224561   0.0000000), wk =   0.0327869
        k(   53) = (   0.4008987  -0.4309351   0.0000000), wk =   0.0327869
        k(   54) = (   0.3867866  -0.4394142   0.0000000), wk =   0.0327869
        k(   55) = (   0.3726745  -0.4478932   0.0000000), wk =   0.0327869
        k(   56) = (   0.3585624  -0.4563723   0.0000000), wk =   0.0327869
        k(   57) = (   0.3444503  -0.4648513   0.0000000), wk =   0.0327869
        k(   58) = (   0.3303382  -0.4733303   0.0000000), wk =   0.0327869
        k(   59) = (   0.3162261  -0.4818094   0.0000000), wk =   0.0327869
        k(   60) = (   0.3021140  -0.4902884   0.0000000), wk =   0.0327869
        k(   61) = (   0.2880019  -0.4987675   0.0000000), wk =   0.0327869

     Dense  grid:    12417 G-vectors     FFT dimensions: (  20,  20,  80)

     Estimated max dynamical RAM per process >       3.49 MB

     Estimated total dynamical RAM >      13.97 MB

     Check: negative/imaginary core charge=   -0.000019    0.000000

     The potential is recalculated from file :
     ./Graphene.save/charge-density.dat


     negative rho (up, down):  1.259E-03 0.000E+00
     Starting wfcs are    8 randomized atomic wfcs +    4 random wfcs

     Band Structure Calculation
     Davidson diagonalization with overlap

     ethr =  1.25E-10,  avg # of iterations = 18.6

     total cpu time spent up to now is        6.0 secs

     End of band structure calculation

          k = 0.2880-0.4988 0.0000 (  1564 PWs)   bands (ev):

   -14.8376 -13.8098  -7.0029  -2.9124   1.1343   6.8596  10.3427  10.4592
    11.6114  11.9717  12.6821  12.7719

          k = 0.2736-0.4738 0.0000 (  1562 PWs)   bands (ev):

   -15.0657 -13.5596  -6.9881  -3.0077   1.2525   6.8670   9.6340  11.0467
    11.1968  11.9793  12.5486  13.5033

          k = 0.2592-0.4489 0.0000 (  1564 PWs)   bands (ev):

   -15.4937 -13.0659  -6.9438  -3.2642   1.5780   6.8888   8.9044  10.3578
    11.2562  12.0224  13.2556  14.2969

          k = 0.2448-0.4240 0.0000 (  1566 PWs)   bands (ev):

   -15.9503 -12.5004  -6.8707  -3.6231   2.0505   6.9237   8.2113   9.6906
    10.5758  12.8522  13.8137  14.8647

          k = 0.2304-0.3990 0.0000 (  1556 PWs)   bands (ev):

   -16.3989 -11.9003  -6.7690  -4.0343   2.6181   6.9660   7.5617   9.0540
     9.9296  13.6713  13.7969  15.1834

          k = 0.2160-0.3741 0.0000 (  1548 PWs)   bands (ev):

   -16.8293 -11.2773  -6.6397  -4.4654   3.2457   6.8692   7.1015   8.4515
     9.3210  13.4167  14.4214  15.5236

          k = 0.2016-0.3491 0.0000 (  1558 PWs)   bands (ev):

   -17.2374 -10.6378  -6.4840  -4.8969   3.9100   6.3296   7.1326   7.8853
     8.7518  12.9728  14.9058  15.0861

          k = 0.1872-0.3242 0.0000 (  1552 PWs)   bands (ev):

   -17.6208  -9.9859  -6.3032  -5.3169   4.5943   5.7921   7.2060   7.3580
     8.2258  12.5263  14.4749  15.2823

          k = 0.1728-0.2993 0.0000 (  1554 PWs)   bands (ev):

   -17.9785  -9.3264  -6.0993  -5.7182   5.2811   5.2907   6.8753   7.2686
     7.7602  12.0953  14.0095  14.5525

          k = 0.1584-0.2743 0.0000 (  1552 PWs)   bands (ev):

   -18.3095  -8.6634  -6.0961  -5.8742   4.8280   5.9158   6.4825   7.1574
     7.5131  11.6880  13.5757  13.7009

          k = 0.1440-0.2494 0.0000 (  1560 PWs)   bands (ev):

   -18.6132  -8.0028  -6.4471  -5.6316   4.4049   5.9173   6.7513   6.7967
     7.5557  11.3091  12.8631  13.1767

          k = 0.1296-0.2244 0.0000 (  1560 PWs)   bands (ev):

   -18.8891  -7.3505  -6.7689  -5.3750   4.0216   5.5701   6.4310   7.3882
     7.6391  10.9616  12.0513  12.8137

          k = 0.1152-0.1995 0.0000 (  1556 PWs)   bands (ev):

   -19.1367  -7.0599  -6.7139  -5.1091   3.6784   5.2390   6.0974   7.7208
     8.0188  10.6475  11.2767  12.4873

          k = 0.1008-0.1746 0.0000 (  1560 PWs)   bands (ev):

   -19.3559  -7.3189  -6.1026  -4.8398   3.3753   4.9428   5.8011   7.7896
     8.6148  10.3682  10.5500  12.1979

          k = 0.0864-0.1496 0.0000 (  1558 PWs)   bands (ev):

   -19.5464  -7.5448  -5.5271  -4.5743   3.1126   4.6847   5.5435   7.8388
     9.1629   9.8823  10.1249  11.9458

          k = 0.0720-0.1247 0.0000 (  1556 PWs)   bands (ev):

   -19.7078  -7.7370  -5.0000  -4.3217   2.8902   4.4655   5.3252   7.8640
     9.2850   9.6494   9.9209  11.7310

          k = 0.0576-0.0998 0.0000 (  1562 PWs)   bands (ev):

   -19.8401  -7.8950  -4.5364  -4.0921   2.7082   4.2858   5.1466   7.8646
     8.7700   9.7425  10.0778  11.5538

          k = 0.0432-0.0748 0.0000 (  1564 PWs)   bands (ev):

   -19.9431  -8.0182  -4.1518  -3.8965   2.5667   4.1459   5.0076   7.8459
     8.3510   9.6118  10.4161  11.4149

          k = 0.0288-0.0499 0.0000 (  1557 PWs)   bands (ev):

   -20.0168  -8.1064  -3.8619  -3.7457   2.4656   4.0459   4.9083   7.8183
     8.0406   9.5172  10.6671  11.3150

          k = 0.0144-0.0249 0.0000 (  1559 PWs)   bands (ev):

   -20.0611  -8.1594  -3.6815  -3.6507   2.4049   3.9858   4.8488   7.7943
     7.8491   9.4603  10.8211  11.2548

          k = 0.0000 0.0000 0.0000 (  1551 PWs)   bands (ev):

   -20.0758  -8.1771  -3.6208  -3.6173   2.3847   3.9658   4.8290   7.7840
     7.7850   9.4413  10.8734  11.2346

          k = 0.0285-0.0165 0.0000 (  1561 PWs)   bands (ev):

   -20.0566  -8.1540  -3.6981  -3.6627   2.4111   3.9920   4.8549   7.7972
     7.8685   9.4661  10.8052  11.2609

          k = 0.0570-0.0329 0.0000 (  1557 PWs)   bands (ev):

   -19.9987  -8.0847  -3.9289  -3.7893   2.4904   4.0704   4.9327   7.8364
     8.1071   9.5405  10.6049  11.3396

          k = 0.0855-0.0494 0.0000 (  1555 PWs)   bands (ev):

   -19.9025  -7.9695  -4.2874  -3.9954   2.6225   4.2012   5.0625   7.9049
     8.4649   9.6642  10.2813  11.4701

          k = 0.1140-0.0658 0.0000 (  1561 PWs)   bands (ev):

   -19.7679  -7.8087  -4.7453  -4.2745   2.8076   4.3839   5.2443   8.0059
     8.8924   9.8364   9.8477  11.6518

          k = 0.1426-0.0823 0.0000 (  1559 PWs)   bands (ev):

   -19.5951  -7.6028  -5.2734  -4.6176   3.0454   4.6186   5.4782   8.1443
     9.3214   9.3370  10.0563  11.8839

          k = 0.1711-0.0988 0.0000 (  1567 PWs)   bands (ev):

   -19.3845  -7.3525  -5.8476  -5.0153   3.3362   4.9048   5.7643   8.3225
     8.7201   9.7550  10.3223  12.1657

          k = 0.1996-0.1152 0.0000 (  1565 PWs)   bands (ev):

   -19.1362  -7.0587  -6.4479  -5.4569   3.6797   5.2421   6.1025   8.0622
     8.5430  10.1239  10.6318  12.4965

          k = 0.2281-0.1317 0.0000 (  1567 PWs)   bands (ev):

   -18.8508  -7.0602  -6.7226  -5.9320   4.0758   5.6298   6.4927   7.3643
     8.8063  10.4425  10.9809  12.8757

          k = 0.2566-0.1481 0.0000 (  1565 PWs)   bands (ev):

   -18.5286  -7.6734  -6.4309  -6.3455   4.5245   6.0670   6.6414   6.9346
     9.1123  10.7213  11.3623  13.3025

          k = 0.2851-0.1646 0.0000 (  1559 PWs)   bands (ev):

   -18.1703  -8.2789  -6.9443  -5.9296   5.0254   5.9064   6.5519   7.4279
     9.4593  10.9731  11.7625  13.7757

          k = 0.3136-0.1811 0.0000 (  1565 PWs)   bands (ev):

   -17.7769  -8.8710  -7.4640  -5.4771   5.1703   5.5782   7.0822   7.9721
     9.8445  11.2076  12.1545  14.2934

          k = 0.3421-0.1975 0.0000 (  1563 PWs)   bands (ev):

   -17.3494  -9.4449  -7.9823  -4.9911   4.4416   6.1826   7.6534   8.5661
    10.2644  11.4315  12.4822  14.8525

          k = 0.3707-0.2140 0.0000 (  1563 PWs)   bands (ev):

   -16.8891  -9.9971  -8.4929  -4.4754   3.7281   6.8376   8.2573   9.2087
    10.7130  11.6474  12.6495  15.4473

          k = 0.3992-0.2304 0.0000 (  1551 PWs)   bands (ev):

   -16.3981 -10.5248  -8.9893  -3.9346   3.0358   7.5424   8.8770   9.8973
    11.1821  11.8552  12.5946  15.5706

          k = 0.4277-0.2469 0.0000 (  1545 PWs)   bands (ev):

   -15.8793 -11.0261  -9.4655  -3.3753   2.3695   8.2950   9.4735  10.6266
    11.6603  12.0513  12.4201  15.9289

          k = 0.4562-0.2633 0.0000 (  1539 PWs)   bands (ev):

   -15.3370 -11.4996  -9.9147  -2.8051   1.7333   9.0919   9.9574  11.3839
    12.1334  12.2269  12.3370  16.2822

          k = 0.4847-0.2798 0.0000 (  1539 PWs)   bands (ev):

   -14.7785 -11.9439 -10.3287  -2.2340   1.1303   9.9263  10.2000  12.1192
    12.3666  12.5523  12.6047  15.6738

          k = 0.5132-0.2963 0.0000 (  1537 PWs)   bands (ev):

   -14.2172 -12.3582 -10.6933  -1.6735   0.5634  10.2080  10.7819  12.4465
    12.6313  13.0950  13.1927  15.1494

          k = 0.5417-0.3127 0.0000 (  1535 PWs)   bands (ev):

   -13.6811 -12.7418 -10.9816  -1.1377   0.0346  10.1317  11.6099  12.4357
    12.8107  13.8174  13.8638  14.7282

          k = 0.5702-0.3292 0.0000 (  1535 PWs)   bands (ev):

   -13.2319 -13.0941 -11.1336  -0.6417  -0.4542  10.0816  12.2218  12.3136
    12.8081  14.3017  14.4105  14.5350

          k = 0.5561-0.3377 0.0000 (  1531 PWs)   bands (ev):

   -13.3685 -12.9927 -11.0851  -0.8293  -0.2696  10.0971  12.1092  12.2980
    12.7844  14.1945  14.3166  14.4923

          k = 0.5420-0.3461 0.0000 (  1532 PWs)   bands (ev):

   -13.5159 -12.9350 -10.9636  -1.0358  -0.0718  10.1365  11.9745  12.1923
    12.6564  14.0772  14.0823  14.4623

          k = 0.5279-0.3546 0.0000 (  1536 PWs)   bands (ev):

   -13.6574 -12.9305 -10.7773  -1.2347   0.1117  10.2003  11.8287  12.0368
    12.4219  13.8575  13.9599  14.3405

          k = 0.5138-0.3631 0.0000 (  1540 PWs)   bands (ev):

   -13.7914 -12.9652 -10.5422  -1.4236   0.2781  10.2880  11.6747  11.8312
    12.1389  13.6445  13.8418  14.1943

          k = 0.4997-0.3716 0.0000 (  1546 PWs)   bands (ev):

   -13.9177 -13.0247 -10.2746  -1.6019   0.4265  10.3975  11.4736  11.5770
    11.8905  13.4437  13.7232  14.0449

          k = 0.4856-0.3801 0.0000 (  1546 PWs)   bands (ev):

   -14.0359 -13.0979  -9.9867  -1.7692   0.5569  10.5251  11.1061  11.4060
    11.6968  13.2556  13.6051  13.8985

          k = 0.4715-0.3885 0.0000 (  1546 PWs)   bands (ev):

   -14.1461 -13.1776  -9.6875  -1.9256   0.6697  10.6661  10.6777  11.2629
    11.5296  13.0801  13.4893  13.7574

          k = 0.4573-0.3970 0.0000 (  1543 PWs)   bands (ev):

   -14.2482 -13.2588  -9.3838  -2.0707   0.7660  10.2341  10.8140  11.1300
    11.3768  12.9174  13.3775  13.6229

          k = 0.4432-0.4055 0.0000 (  1543 PWs)   bands (ev):

   -14.3422 -13.3387  -9.0807  -2.2045   0.8469   9.7904  10.9617  11.0062
    11.2355  12.7675  13.2712  13.4959

          k = 0.4291-0.4140 0.0000 (  1542 PWs)   bands (ev):

   -14.4282 -13.4151  -8.7827  -2.3268   0.9139   9.3569  10.8921  11.1019
    11.1052  12.6305  13.1717  13.3772

          k = 0.4150-0.4225 0.0000 (  1548 PWs)   bands (ev):

   -14.5059 -13.4865  -8.4942  -2.4377   0.9686   8.9403  10.7881  10.9859
    11.2277  12.5063  13.0799  13.2676

          k = 0.4009-0.4309 0.0000 (  1548 PWs)   bands (ev):

   -14.5755 -13.5521  -8.2191  -2.5371   1.0126   8.5471  10.6946  10.8780
    11.3346  12.3950  12.9968  13.1677

          k = 0.3868-0.4394 0.0000 (  1554 PWs)   bands (ev):

   -14.6369 -13.6111  -7.9618  -2.6249   1.0474   8.1828  10.6118  10.7818
    11.4205  12.2966  12.9229  13.0780

          k = 0.3727-0.4479 0.0000 (  1556 PWs)   bands (ev):

   -14.6901 -13.6629  -7.7265  -2.7011   1.0745   7.8527  10.5401  10.6976
    11.4860  12.2110  12.8586  12.9990

          k = 0.3586-0.4564 0.0000 (  1552 PWs)   bands (ev):

   -14.7351 -13.7073  -7.5171  -2.7656   1.0952   7.5625  10.4795  10.6256
    11.5335  12.1384  12.8042  12.9311

          k = 0.3445-0.4649 0.0000 (  1552 PWs)   bands (ev):

   -14.7720 -13.7440  -7.3386  -2.8184   1.1106   7.3167  10.4301  10.5662
    11.5664  12.0787  12.7599  12.8746

          k = 0.3303-0.4733 0.0000 (  1560 PWs)   bands (ev):

   -14.8007 -13.7727  -7.1947  -2.8596   1.1215   7.1201  10.3917  10.5196
    11.5883  12.0321  12.7256  12.8301

          k = 0.3162-0.4818 0.0000 (  1564 PWs)   bands (ev):

   -14.8212 -13.7933  -7.0891  -2.8889   1.1287   6.9765  10.3644  10.4862
    11.6017  11.9986  12.7013  12.7979

          k = 0.3021-0.4903 0.0000 (  1562 PWs)   bands (ev):

   -14.8334 -13.8057  -7.0246  -2.9065   1.1328   6.8890  10.3481  10.4660
    11.6091  11.9784  12.6869  12.7784

          k = 0.2880-0.4988 0.0000 (  1564 PWs)   bands (ev):

   -14.8376 -13.8098  -7.0029  -2.9124   1.1343   6.8596  10.3427  10.4592
    11.6114  11.9717  12.6821  12.7719

     Writing output data file Graphene.save/

     init_run     :      0.11s CPU      0.13s WALL (       1 calls)
     electrons    :      4.80s CPU      5.43s WALL (       1 calls)

     Called by init_run:
     wfcinit      :      0.00s CPU      0.00s WALL (       1 calls)
     potinit      :      0.01s CPU      0.01s WALL (       1 calls)
     hinit0       :      0.09s CPU      0.10s WALL (       1 calls)

     Called by electrons:
     c_bands      :      4.80s CPU      5.43s WALL (       1 calls)
     v_of_rho     :      0.01s CPU      0.01s WALL (       1 calls)
     newd         :      0.00s CPU      0.00s WALL (       1 calls)

     Called by c_bands:
     init_us_2    :      0.01s CPU      0.01s WALL (      61 calls)
     cegterg      :      4.51s CPU      5.08s WALL (      79 calls)

     Called by sum_band:

     Called by *egterg:
     h_psi        :      2.97s CPU      3.45s WALL (    1276 calls)
     s_psi        :      0.12s CPU      0.12s WALL (    1276 calls)
     g_psi        :      0.01s CPU      0.02s WALL (    1136 calls)
     cdiaghg      :      0.55s CPU      0.58s WALL (    1197 calls)

     Called by h_psi:
     h_psi:pot    :      2.96s CPU      3.43s WALL (    1276 calls)
     h_psi:calbec :      0.15s CPU      0.16s WALL (    1276 calls)
     vloc_psi     :      2.70s CPU      3.13s WALL (    1276 calls)
     add_vuspsi   :      0.10s CPU      0.12s WALL (    1276 calls)

     General routines
     calbec       :      0.15s CPU      0.16s WALL (    1276 calls)
     fft          :      0.01s CPU      0.01s WALL (      13 calls)
     fftw         :      2.56s CPU      2.91s WALL (   19154 calls)
     davcio       :      0.00s CPU      0.01s WALL (     122 calls)

     Parallel routines
     fft_scatt_xy :      0.19s CPU      0.25s WALL (   19167 calls)
     fft_scatt_yz :      0.45s CPU      0.54s WALL (   19167 calls)

     PWSCF        :     5.38s CPU         6.14s WALL


   This run was terminated on:  14:37:24  20Feb2023            

=------------------------------------------------------------------------------=
   JOB DONE.
=------------------------------------------------------------------------------=
